 &FCI NORB= 12,NELEC= 12,MS2= 0,
  ORBSYM=1,1,1,1,1,1,1,1,1,1,1,1,
  ISYM=1,
 &END
  4.0000000000000000   1   1   1   1
  4.0000000000000000   2   2   2   2
  4.0000000000000000   3   3   3   3
  4.0000000000000000   4   4   4   4
  4.0000000000000000   5   5   5   5
  4.0000000000000000   6   6   6   6
  4.0000000000000000   7   7   7   7
  4.0000000000000000   8   8   8   8
  4.0000000000000000   9   9   9   9
  4.0000000000000000  10  10  10  10
  4.0000000000000000  11  11  11  11
  4.0000000000000000  12  12  12  12
 -1.0000000000000000   2   1   0   0
 -1.0000000000000000   3   2   0   0
 -1.0000000000000000   4   3   0   0
 -1.0000000000000000   5   4   0   0
 -1.0000000000000000   6   5   0   0
 -1.0000000000000000   7   6   0   0
 -1.0000000000000000   8   7   0   0
 -1.0000000000000000   9   8   0   0
 -1.0000000000000000  10   9   0   0
 -1.0000000000000000  11  10   0   0
 -1.0000000000000000  12   1   0   0
 -1.0000000000000000  12  11   0   0
  0.0000000000000000   0   0   0   0
